# vtk DataFile Version 3.0
vtk generated by fshapesTk
ASCII
DATASET POLYDATA
POINTS 2581 float
-0.094019 0.11877 0.0173
-0.094039 0.126929 0.023262
-0.09469 0.124172 0.020267
-0.094345 0.121485 0.023287
-0.09337 0.118789 0.024292
-0.093001 0.116069 0.019309
-0.094218 0.125518 0.017258
-0.093465 0.120072 0.012303
-0.092248 0.120133 0.02929
-0.092445 0.114684 0.016321
-0.093257 0.121548 0.03828
-0.09295 0.128215 0.012252
-0.092215 0.11614 0.037311
-0.092796 0.121487 0.041639
-0.092534 0.124191 0.030271
-0.092924 0.120168 0.033291
-0.091334 0.117411 0.028306
-0.093108 0.131006 0.019231
-0.092306 0.12017 0.042617
-0.091895 0.117319 0.008314
-0.091428 0.113787 0.018961
-0.093145 0.118854 0.038296
-0.091824 0.128307 0.032243
-0.092242 0.128315 0.02926
-0.091033 0.133669 0.011222
-0.091186 0.114622 0.009336
-0.092116 0.126957 0.038246
-0.090909 0.114612 0.040004
-0.091426 0.14884 0.020132
-0.090395 0.118903 0.045009
-0.091879 0.141976 0.018172
-0.090862 0.135106 0.019209
-0.091654 0.147467 0.018147
-0.091117 0.143373 0.023165
-0.091267 0.130919 0.008238
-0.09267 0.124234 0.040254
-0.090827 0.137853 0.018199
-0.089908 0.121615 0.045859
-0.089049 0.136506 0.026202
-0.092738 0.122733 0.009271
-0.090764 0.142021 0.027171
-0.091193 0.147489 0.024129
-0.090427 0.150188 0.014137
-0.092552 0.131032 0.024236
-0.090619 0.139243 0.021183
-0.09079 0.1297 0.039232
-0.091072 0.141959 0.015188
-0.089161 0.137877 0.025194
-0.089117 0.11284 0.040033
-0.088154 0.121251 0.000301
-0.090065 0.132428 0.033223
-0.091206 0.14882 0.015146
-0.088917 0.126733 0.003297
-0.089143 0.137902 0.029194
-0.090632 0.112714 0.016374
-0.090016 0.133639 0.006228
-0.089717 0.142036 0.030165
-0.089386 0.094304 0.020415
-0.087728 0.139146 0.009205
-0.089702 0.151503 0.017122
-0.089719 0.129664 0.042595
-0.089204 0.096947 0.009419
-0.08951 0.094283 0.014433
-0.089639 0.098356 0.016401
-0.088464 0.088772 0.005476
-0.089914 0.140577 0.014203
-0.088826 0.100978 0.010408
-0.088711 0.101017 0.01937
-0.089121 0.088885 0.014456
-0.08806 0.13085 0.002257
-0.089186 0.139294 0.037159
-0.089923 0.115405 0.027046
-0.08969 0.116203 0.044395
-0.089506 0.090253 0.018445
-0.090429 0.148866 0.024124
-0.088411 0.092832 0.007443
-0.0904 0.124268 0.044851
-0.08885 0.102361 0.015381
-0.088614 0.09698 0.022393
-0.090856 0.14471 0.015167
-0.08693 0.137738 0.004196
-0.088048 0.145895 0.032
-0.089879 0.113438 0.034042
-0.088436 0.140505 0.038192
-0.089122 0.133627 0.004231
-0.087669 0.098189 0.004433
-0.08989 0.136442 0.013225
-0.087836 0.112676 0.042232
-0.086545 0.110395 0.008354
-0.084796 0.147297 0.035786
-0.086565 0.097813 0.026353
-0.089247 0.088858 0.010467
-0.086883 0.089624 0.025516
-0.087814 0.105004 0.012374
-0.088547 0.090233 0.022415
-0.08762 0.143285 0.01012
-0.087365 0.092756 0.004436
-0.087443 0.110454 0.017341
-0.087722 0.128407 0.046282
-0.085741 0.120359 0.048887
-0.089217 0.151457 0.014157
-0.085765 0.112351 0.028648
-0.087981 0.086084 0.005487
-0.086773 0.103584 0.006389
-0.089113 0.14743 0.010199
-0.086804 0.084677 0.009482
-0.086283 0.141953 0.040232
-0.086908 0.084709 0.013477
-0.08572 0.113489 0.045623
-0.086577 0.124349 0.048115
-0.088154 0.087503 0.020457
-0.087223 0.094109 0.003351
-0.086829 0.084707 0.017475
-0.08263 0.110259 0.0284
-0.08676 0.107707 0.014355
-0.086732 0.100467 0.025023
-0.086185 0.083225 0.006477
-0.087442 0.113109 0.005324
-0.085976 0.080555 0.007506
-0.087938 0.126705 0.000269
-0.086559 0.080636 0.013503
-0.084865 0.085548 0.026434
-0.085181 0.137956 0.044901
-0.0843 0.096586 0.02978
-0.085724 0.079249 0.016503
-0.086544 0.107736 0.017365
-0.086842 0.134936 0.002269
-0.089756 0.114544 0.006318
-0.086698 0.109058 0.013347
-0.087117 0.119846 -0.00072
-0.085378 0.128494 0.049612
-0.085893 0.108988 0.008341
-0.086872 0.106357 0.017349
-0.084929 0.12649 -0.003343
-0.08588 0.092657 0.001455
-0.087225 0.152479 0.021696
-0.085594 0.143251 0.007191
-0.083973 0.08978 0.029657
-0.085987 0.140484 0.004179
-0.085779 0.088721 -0.000548
-0.083877 0.108986 0.025368
-0.083817 0.107636 0.025351
-0.08585 0.116285 0.047652
-0.084148 0.15365 0.012354
-0.085221 0.103481 0.001387
-0.085884 0.083307 0.020482
-0.084144 0.110242 0.003304
-0.084373 0.110309 0.037787
-0.085805 0.095356 -0.000573
-0.086293 0.15121 0.027304
-0.082551 0.110697 0.030735
-0.083882 0.150077 0.004204
-0.08557 0.139064 0.002222
-0.08444 0.100576 0.028395
-0.083787 0.082948 0.028297
-0.087102 0.111516 0.039766
-0.082826 0.11472 -0.001624
-0.084607 0.079111 0.004538
-0.086014 0.084564 0.001481
-0.084288 0.111698 0.043816
-0.085553 0.153551 0.01923
-0.083696 0.076344 0.007524
-0.084395 0.081834 0.022511
-0.083007 0.117688 0.048971
-0.081883 0.109932 0.036863
-0.08445 0.151409 0.006212
-0.084986 0.149949 0.031674
-0.085214 0.080592 0.020477
-0.086439 0.131188 0.047746
-0.081976 0.138997 -0.00077
-0.08311 0.077721 0.021513
-0.083936 0.102045 -0.002618
-0.080497 0.149757 0.036234
-0.080876 0.073332 0.003509
-0.084442 0.147376 0.005153
-0.084502 0.091179 -0.004563
-0.085112 0.133936 0.047771
-0.084611 0.084433 -0.002535
-0.078802 0.084636 0.03595
-0.079527 0.096746 0.034882
-0.084129 0.08172 0.002481
-0.080935 0.145916 -0.000819
-0.083488 0.14321 0.003161
-0.080855 0.140749 0.04616
-0.083714 0.080489 0.025498
-0.079694 0.087306 0.035361
-0.082755 0.07629 0.012523
-0.082948 0.128017 -0.004579
-0.080966 0.133877 -0.003637
-0.083503 0.123045 0.049342
-0.084858 0.120613 -0.00299
-0.079271 0.107765 0.032001
-0.081147 0.076954 0.02517
-0.083962 0.114292 0.047151
-0.081817 0.073471 0.008534
-0.081595 0.074847 0.017537
-0.081519 0.125984 0.052205
-0.081582 0.080302 0.030391
-0.080829 0.072093 0.015544
-0.084161 0.142011 0.042356
-0.07784 0.10982 0.043207
-0.080923 0.092645 0.033595
-0.079619 0.104749 0.031927
-0.081074 0.143155 -0.000828
-0.07979 0.152563 0.031615
-0.082506 0.110166 0.000354
-0.081024 0.093683 -0.008569
-0.081079 0.117571 0.048673
-0.08047 0.130248 0.052685
-0.078504 0.127443 0.053282
-0.078505 0.111148 0.045575
-0.080704 0.082774 -0.006567
-0.079436 0.144805 0.04321
-0.079362 0.07395 0.024599
-0.080804 0.086864 -0.007569
-0.079929 0.151371 0.00121
-0.078904 0.126621 -0.006282
-0.076866 0.120803 -0.00711
-0.076212 0.155059 0.00635
-0.079383 0.070586 0.008549
-0.078665 0.076417 0.029656
-0.078843 0.082596 -0.009607
-0.080681 0.076027 -0.002532
-0.077948 0.107702 0.034147
-0.079832 0.111318 -0.001807
-0.080816 0.150056 0.001174
-0.079776 0.070625 0.015555
-0.082473 0.09923 -0.005591
-0.079293 0.16941 -0.039986
-0.08173 0.107364 -0.002605
-0.080093 0.138964 -0.003792
-0.079048 0.168047 -0.03497
-0.080466 0.080042 -0.005554
-0.081944 0.154696 0.01458
-0.078567 0.172906 -0.041699
-0.079378 0.154922 0.024288
-0.079497 0.113845 0.046766
-0.078002 0.155773 0.018849
-0.083424 0.096562 -0.00458
-0.079006 0.166641 -0.035962
-0.079495 0.12171 0.050727
-0.078759 0.163869 -0.028948
-0.080455 0.134426 0.050865
-0.078106 0.094858 -0.011527
-0.079069 0.08045 0.033529
-0.078258 0.1764 -0.049032
-0.076593 0.077073 0.033045
-0.078998 0.165257 -0.031952
-0.078418 0.163881 -0.026951
-0.074838 0.097856 -0.013319
-0.077788 0.113218 0.047636
-0.078437 0.170061 -0.036058
-0.077373 0.156953 -0.012903
-0.078217 0.159705 -0.021925
-0.078275 0.174383 -0.043393
-0.078668 0.170753 -0.043028
-0.075518 0.120378 0.053057
-0.077617 0.145877 -0.003847
-0.076485 0.148385 0.040389
-0.077496 0.131676 0.05273
-0.076499 0.134472 0.051516
-0.076623 0.167356 -0.026501
-0.077094 0.154164 -0.011898
-0.078168 0.14865 -0.002883
-0.081447 0.07612 0.000521
-0.077859 0.161105 -0.02692
-0.077339 0.152802 -0.001887
-0.077853 0.159695 -0.023924
-0.077011 0.152809 -0.006888
-0.076084 0.164579 -0.019877
-0.076718 0.159013 -0.012032
-0.077814 0.06964 0.007418
-0.077184 0.152278 0.034002
-0.078682 0.173602 -0.046
-0.075927 0.108411 0.037642
-0.076844 0.113421 -0.004592
-0.079495 0.085407 -0.009568
-0.07728 0.155549 -0.016903
-0.076839 0.102007 -0.010145
-0.077942 0.075766 -0.006567
-0.07742 0.177255 -0.0472
-0.076675 0.154077 0.000107
-0.076874 0.06984 0.021631
-0.076277 0.179149 -0.050884
-0.075369 0.155134 0.02709
-0.07531 0.080516 0.036829
-0.076979 0.148604 -0.006994
-0.077521 0.124569 0.052364
-0.075975 0.156283 -0.00564
-0.075496 0.141423 0.047197
-0.07376 0.111876 0.047846
-0.076385 0.114637 0.050401
-0.074418 0.069256 0.026176
-0.076024 0.150016 -0.007891
-0.07702 0.170132 -0.03325
-0.074969 0.105672 0.036482
-0.075956 0.112612 -0.00568
-0.076954 0.132513 -0.006574
-0.076178 0.148614 -0.010867
-0.074889 0.119375 -0.00766
-0.076856 0.117877 -0.006591
-0.075958 0.071995 0.028739
-0.078196 0.073 -0.003597
-0.072726 0.157431 -0.002653
-0.078061 0.117721 0.051136
-0.077475 0.141413 0.047069
-0.074607 0.156859 -0.023929
-0.074508 0.115686 0.051776
-0.072934 0.090146 0.041191
-0.075388 0.151441 -0.010915
-0.077702 0.176292 -0.050105
-0.074583 0.173457 -0.038075
-0.075188 0.179229 -0.053009
-0.0762 0.14998 -0.014877
-0.076233 0.145832 -0.005872
-0.075073 0.067582 0.018683
-0.074957 0.152744 -0.015898
-0.076934 0.126684 -0.007585
-0.074951 0.066129 0.009445
-0.07417 0.096848 0.03942
-0.07559 0.079639 -0.010614
-0.073774 0.087848 -0.015389
-0.073797 0.148055 0.041299
-0.075939 0.151364 -0.016882
-0.073199 0.145774 -0.014854
-0.074685 0.14995 -0.029403
-0.076223 0.16043 -0.012571
-0.077032 0.088754 0.038281
-0.07603 0.094137 0.038542
-0.072857 0.162156 -0.011433
-0.071489 0.129823 0.051142
-0.074033 0.13404 0.051006
-0.07349 0.123206 0.053542
-0.074449 0.141666 -0.006752
-0.073453 0.143001 -0.00787
-0.074842 0.154048 -0.0189
-0.075211 0.159631 -0.027949
-0.074087 0.073471 0.033112
-0.074749 0.155081 0.002487
-0.072655 0.180933 -0.054676
-0.072302 0.111428 0.046745
-0.075957 0.136911 -0.00616
-0.075657 0.067222 0.011813
-0.073943 0.134018 -0.007541
-0.071931 0.128266 -0.008931
-0.074892 0.16378 -0.035999
-0.071867 0.115007 -0.007768
-0.074901 0.110639 -0.007693
-0.072734 0.082145 -0.015612
-0.074705 0.0837 -0.014597
-0.074397 0.149892 -0.031096
-0.073024 0.159629 -0.034932
-0.074624 0.166812 -0.022233
-0.072524 0.106883 0.0374
[...]
POINT_DATA 2581
SCALARS signal FLOAT
LOOKUP_TABLE default
0.541582
0.33785
0.424689
0.434204
0.473655
0.570144
0.440829
0.555353
0.383829
0.615315
0.255872
0.456442
0.362139
0.23736
0.285803
0.327059
0.459449
0.338551
0.258169
0.59374
0.618605
0.302716
0.180527
0.224245
0.415065
0.618446
0.167335
0.373246
0.236698
0.281313
0.263475
0.286018
0.265637
0.170671
0.46891
0.192645
0.280918
0.240114
0.146102
0.539475
0.111729
0.162358
0.344964
0.256821
0.220166
0.110193
0.315167
0.154075
0.415423
0.502106
0.100863
0.320774
0.498319
0.102366
0.654308
0.461466
0.0706345
0.812678
0.416995
0.306096
0.10507
0.679708
0.74021
0.783421
0.52413
0.341207
0.711503
0.811118
0.683537
0.477675
0.0189819
0.530934
0.331149
0.758134
0.172192
0.605074
0.194424
0.771044
0.833693
0.315902
0.464521
0.0693831
0.466039
0.0110203
0.469596
0.595626
0.375067
0.411782
0.651782
0.0520088
0.840937
0.620809
0.826104
0.725275
0.809127
0.404399
0.544102
0.710034
0.139618
0.288639
0.355732
0.604714
0.479225
0.64549
0.394189
0.526498
0.0248057
0.604657
0.397583
0.21619
0.761771
0.536526
0.681301
0.674396
0.727104
0.823395
0.43549
0.59147
0.411643
0.476762
0.544709
0.806623
0.0626705
0.832939
0.585358
0.742786
0.471517
0.602595
0.70309
0.493132
0.172124
0.65375
0.757385
0.434372
0.476065
0.251267
0.44389
0.833265
0.462096
0.391382
0.712859
0.736392
0.349358
0.434896
0.544329
0.714008
0.55886
0.525742
0.465796
0.163988
0.640271
0.491743
0.465305
0.815003
0.804004
0.456892
0.453922
0.314503
0.367457
0.445002
0.313759
0.333366
0.727092
0.353108
0.569708
0.473133
0.114385
0.677187
0.11443
0.446868
0.659386
0.455582
0.113837
0.202253
0.475089
0.348816
0.10464
0.285717
0.80629
0.770025
0.311501
0.48864
0.47243
0.10247
0.752386
0.810635
0.438512
0.402542
0.405133
0.270452
0.447792
0.676538
0.713447
0.394517
0.30491
0.534225
0.256822
0.795507
0.454253
0.0421462
0.524153
0.811842
0.719425
0.468621
0.188995
0.489045
0.293091
0.376389
0.223127
0.282882
0.489315
0.178271
0.113476
0.676517
0.224542
0.532718
0.32539
0.272055
0.559327
0.257889
0.762068
0.146396
0.123677
0.645783
0.411886
0.518541
0.436326
0.378865
0.559549
0.431161
0.420695
0.509555
0.14379
0.431725
0.605835
0.312698
0.444251
0.422087
0.380761
0.502205
0.336734
0.447751
0.171067
0.254381
0.799494
0.694296
0.785895
0.470723
0.438245
0.234773
0.464505
0.534236
0.468889
0.434988
0.632868
0.596636
0.405433
0.460454
0.169771
0.251996
0.239198
0.462371
0.462466
0.496195
0.172491
0.419846
0.539624
0.422564
0.497442
0.466774
0.484325
0.211101
0.205443
0.650174
0.597785
0.312015
0.184076
0.432656
0.272186
0.0759701
0.687504
0.563821
0.577361
0.723652
0.340047
0.785857
0.45752
0.330585
0.526282
0.20047
0.505842
0.454999
0.676281
0.462054
0.516568
0.635683
0.282593
0.32647
0.419905
0.229864
0.280092
0.728754
0.06442
0.566368
0.404886
0.160444
0.38026
0.460218
0.68602
0.444559
0.701041
0.58078
0.737325
0.390934
0.435283
0.493883
0.409102
0.284267
0.241255
0.676477
0.0939936
0.175987
0.227623
0.386721
0.349915
0.286508
0.487464
0.769243
0.726939
0.498804
0.380506
0.287325
0.40373
0.375702
0.373995
0.392925
0.393215
0.774708
0.58825
0.757217
0.523178
0.348667
0.303557
0.290154
0.205236
0.450676
0.17374
0.241175
0.134535
0.136318
0.280712
0.386643
0.461297
0.600436
0.31568
0.352268
0.520026
0.036101
0.29228
0.680806
0.43768
0.544354
0.458074
0.366123
0.484355
0.334997
0.632422
0.270875
0.737271
0.358903
0.0500343
0.469533
0.26639
0.290802
0.617492
0.68159
0.596634
0.470071
0.287531
0.627493
0.331528
0.602595
0.269622
0.760399
0.465175
0.602795
0.611688
0.310036
0.154983
0.286178
0.753556
0.209055
0.60303
0.303136
0.488828
0.0875509
0.691401
0.569206
0.507765
0.0827308
0.576031
0.347839
0.494899
0.0584409
0.333187
0.46005
0.645624
0.40061
0.759264
0.534897
0.627228
0.329053
0.63023
0.57651
0.326529
0.614376
0.601657
0.331532
0.272275
0.645567
0.6369
0.022514
0.187175
0.770406
0.0917908
0.0608937
0.578779
0.28352
0.622039
0.463088
0.418113
0.759516
0.643969
0.258026
0.390314
0.558825
0.536898
0.627472
0.306931
0.0459519
0.46611
0.37643
0.441543
0.284489
0.562897
0.441558
0.648178
0.0672335
0.616888
0.587891
0.468241
0.310462
0.572558
0.745711
0.582513
0.401707
0.456452
0.329374
0.767924
0.511467
0.19005
0.440686
0.495241
0.332925
0.22417
0.271737
0.483861
0.549357
0.387606
0.754429
0.552992
0.536218
0.623851
0.545119
0.262859
0.64771
0.164154
0.623397
0.658286
0.237643
0.187504
0.435243
0.536881
0.481525
0.611871
0.616393
0.317846
0.638246
0.295188
0.521159
0.445568
0.582236
0.562918
0.582008
0.432325
0.576537
0.189623
0.607751
0.655777
0.124419
0.256352
0.62862
0.729116
0.710982
0.551384
0.771944
0.76303
0.505474
0.423149
0.556411
0.562662
0.592448
0.58148
0.161484
0.615402
0.363916
0.531858
0.513904
0.499227
0.570238
0.576567
0.761742
0.771533
0.572742
0.639654
0.527458
0.621226
0.259509
0.155001
0.0173212
0.117398
0.539065
0.219298
0.214604
0.544167
0.290098
0.31804
0.544192
0.564595
0.50314
0.124527
0.57675
0.630294
0.67774
0.668619
0.541667
0.684222
0.466171
0.604883
0.770718
0.360323
0.752518
0.680892
0.517629
0.619756
0.623305
0.544548
0.677545
0.201205
0.506411
0.604099
0.147832
0.532761
0.401034
0.656031
0.532162
0.613666
0.765118
0.661018
0.615857
0.563659
0.505843
0.0700627
0.589279
0.406113
0.529143
0.498025
0.420709
0.618353
0.525859
0.28301
0.478644
0.449462
0.625293
0.658412
0.345855
0.524279
0.61406
0.454377
0.197548
0.567047
0.674596
0.353376
0.761989
0.339481
0.75469
0.581345
0.516734
0.465987
0.10247
0.43717
0.48947
0.597341
0.720302
0.453092
0.687835
0.474689
0.405411
0.42749
0.689157
0.606611
0.275563
0.357988
0.476888
0.314639
0.738258
0.567663
0.727836
0.0691836
0.508781
0.531496
0.283827
0.639442
0.220969
0.761201
0.348655
0.704486
0.161824
0.457336
0.522185
0.447475
0.535245
0.276346
0.304187
0.366952
0.512758
0.636341
0.452212
0.52948
0.404813
0.544222
0.357258
0.610445
0.420601
0.738149
0.645029
0.715403
0.402884
0.629919
0.644652
0.620592
0.34691
0.294541
0.670337
0.0356273
0.361433
0.271409
0.711432
0.629016
0.354167
0.31989
0.366268
0.673659
0.0131099
0.573095
0.359718
0.352401
0.325972
0.624348
0.407548
0.518613
0.328189
0.7373
0.625885
0.514694
0.48795
0.513439
0.656416
0.708938
0.646915
0.644681
0.61028
0.680723
0.807208
0.766948
0.163574
0.256771
0.306
0.5201
0.66499
0.38775
0.569224
0.418088
0.376632
0.609692
0.485634
0.684516
0.67206
0.706791
0.465914
0.554476
0.720582
0.480009
0.464664
0.651828
0.612558
0.624933
0.247791
0.169333
0.14745
0.17884
0.679648
0.567297
0.304178
0.592648
0.714204
0.65276
0.0148676
0.671343
0.176143
0.0778386
0.541345
0.762507
0.28037
0.237333
0.755391
0.684615
0.525243
0.684804
0.509274
0.609099
0.350878
0.749324
0.617089
0.659149
0.488149
0.551374
0.593415
0.473428
0.541349
0.670157
0.695174
0.787863
0.208896
0.588772
0.504185
0.707554
0.70226
0.595868
0.427071
0.49007
0.471617
0.7631
0.537682
0.666274
0.525757
0.490566
0.414867
0.619732
0.112825
0.494033
0.754412
0.406288
0.124742
0.407815
0.33757
0.681296
0.212138
0.288091
0.407867
0.449145
0.514274
0.489739
0.394051
0.342307
0.341284
0.557578
0.445489
0.45457
0.661719
0.719666
0.288352
0.304939
0.761411
0.823101
0.259962
0.641775
0.735739
0.759788
0.3664
0.623476
0.502254
0.336844
0.399288
0.784646
0.421004
0.826723
0.782864
0.509663
0.519642
0.117676
0.652722
0.480091
0.779712
0.868587
0.680709
0.719841
0.716515
0.769183
0.226657
0.794474
0.779424
0.521481
0.353244
0.195014
0.397026
0.343072
0.587709
0.454759
0.357021
0.815652
0.832779
0.779883
0.795344
0.773384
0.5713
0.677503
0.772551
0.463725
0.360399
0.770716
0.531818
0.415225
0.426765
0.370396
0.763093
0.290249
0.302501
0.771309
0.236246
0.480447
0.818531
0.855402
0.596009
0.369971
0.450256
0.728906
0.752636
0.639736
0.865272
0.369506
0.77566
0.68676
0.723095
0.277328
0.858084
0.781057
0.555626
0.765185
0.78363
0.696511
0.661412
0.196815
0.162535
0.797838
0.64061
0.798455
0.333639
0.0499396
0.344624
0.437762
0.420434
0.442277
0.536187
0.374949
0.277967
0.280391
0.562927
0.489815
0.79734
0
0.766805
0.453936
0.428507
0.722249
0.644045
0.429859
0.828677
0.843403
0.792571
0.607247
0.592457
0.786167
0.519955
0.517414
0.541111
0.798874
0.528697
0.32476
0.888196
0.752912
0.501312
0.750293
0.41053
0.462568
0.567091
0.422413
0.764153
0.806418
0.456042
0.717399
0.292309
0.781297
0.637598
0.255086
0.444423
0.671642
0.770263
0.466231
0.816334
0.870707
0.338005
0.368808
0.743279
0.608094
0.579969
0.598771
0.29363
0.350304
0.311459
0.59146
0.812343
0.5154
0.818025
0.795757
0.712183
0.16828
0.0645633
0.797807
0.682975
0.898885
0.770426
0.271527
0.46737
0.344712
0.221085
0.372366
0.806206
0.296477
0.341612
0.459349
0.790762
0.869124
0.317198
0.189997
0.627634
0.762846
0.716302
0.760217
0.879377
0.546331
0.698561
0.497439
0.725468
0.56013
0.745408
0.434032
0.499611
0.827489
0.781114
0.42205
0.255406
0.240253
0.565634
0.413031
0.800844
0.582754
0.572728
0.79239
0.124783
0.318968
0.824005
0.178463
0.558449
0.127841
0.554548
0.661899
0.40343
0.724252
0.770496
0.342639
0.367229
0.847663
0.2734
0.195466
0.231821
0.774693
0.423605
0.663408
0.72629
0.708224
0.282985
0.606585
0.443791
0.650335
0.185051
0.535866
0.379122
0.474711
0.481585
0.759558
0.440423
0.761896
0.80376
0.340309
0.268912
0.519827
0.20789
0.800617
0.886092
0.858153
0.233534
0.713308
0.282882
0.556519
0.333059
0.699922
0.860185
0.413656
0.154273
0.146982
0.685099
0.451529
0.396907
0.403251
0.255673
0.188327
0.22319
0.0532297
0.61612
0.717993
0.36815
0.33893
0.498462
0.623773
0.370932
0.484214
0.395284
0.842278
0.770216
0.321375
0.397494
0.425281
0.287333
0.702651
0.436143
0.783611
0.549784
0.749201
0.764896
0.649065
0.269872
0.658295
0.574657
0.562483
0.330117
0.530314
0.452314
0.364098
0.44791
0.668502
0.63141
0.330922
0.405491
0.370536
0.760964
0.793798
0.773468
0.682927
0.657602
0.494417
0.702993
0.437789
0.264877
0.755276
0.704458
0.464454
0.70737
0.742636
0.55299
0.49603
0.76592
0.176912
0.299378
0.25299
0.727243
0.608957
0.191273
0.264946
0.472303
0.717568
0.258614
0.773896
0.772842
0.843562
0.24917
0.513967
0.26643
0.782242
0.204736
0.745797
0.186044
0.728275
0.320163
0.634851
0.556556
0.528396
0.707048
0.618642
0.740573
0.300373
0.70329
0.262549
0.310744
0.418473
0.479641
0.847049
0.742455
0.463325
0.768515
0.423791
0.800622
0.652584
0.431591
0.72623
0.231467
0.195621
0.656601
0.326736
0.360057
0.208039
0.752745
0.253371
0.662893
0.686
0.656986
0.764914
0.305983
0.744747
0.719607
0.305537
0.411232
0.650798
0.611452
0.488891
0.636292
0.210815
0.723428
0.269549
0.286018
0.780554
0.213423
0.175088
0.580437
0.298879
0.718128
0.677093
0.338665
0.708253
0.737298
0.542431
0.688574
0.658289
0.41613
0.548686
0.762225
0.359424
0.306233
0.237191
0.308548
0.630534
0.576348
0.201031
0.290972
0.501445
0.158855
0.314283
0.725104
0.631575
0.271257
0.748828
0.18534
0.307339
0.392153
0.332642
0.495137
0.688802
0.735946
0.412894
0.404246
0.386694
0.789026
0.311355
0.454063
0.26371
0.322401
0.234383
0.182937
0.612494
0.244976
0.186628
0.788411
0.807517
0.57457
0.214424
0.321674
0.627994
0.7571
0.652239
0.705351
0.308187
0.833736
0.740846
0.318879
0.443419
0.311446
0.702744
0.231616
0.400003
0.405259
0.426549
0.635133
0.378139
0.258352
0.73731
0.19934
0.648626
0.323089
0.636554
0.654812
0.566906
0.409817
0.525258
0.264603
0.330791
0.253049
0.684981
0.148481
0.326934
0.40902
0.420174
0.168787
0.676292
0.307515
0.78071
0.414644
0.736052
0.189625
0.704416
0.308861
0.803754
0.595688
0.340117
0.148218
0.640795
0.743561
0.820133
0.558946
0.563496
0.794327
0.732893
0.619751
0.550962
0.71026
0.309695
0.150117
0.312383
0.222014
0.699441
0.641467
0.697259
0.199015
0.468813
0.834814
0.581101
0.518093
0.708575
0.677915
0.424778
0.733188
0.352322
0.581032
0.244629
0.800739
0.430063
0.163472
0.518802
0.803056
0.428203
0.151367
0.202192
0.692492
0.698557
0.58877
0.393709
0.305703
0.31148
0.21598
0.248543
0.201704
0.319522
0.194277
0.157972
0.548703
0.733506
0.450357
0.416769
0.178132
0.425264
0.722976
0.155159
0.814998
0.456743
0.669638
0.268108
0.236422
0.231771
0.569435
0.30247
0.367637
0.633703
0.470782
0.320305
0.434365
0.407864
0.500461
0.717269
0.635684
0.326976
0.155036
0.551116
0.732459
0.657729
0.718935
0.432936
0.344114
0.501601
0.524404
0.539159
0.222291
0.23877
0.227239
0.706168
0.444192
0.191884
0.53742
0.45919
0.588175
0.428038
0.377929
0.46933
0.588995
0.569535
0.421603
0.184713
0.454422
0.656664
0.175715
0.156878
0.801814
0.658127
0.256871
0.562663
0.474946
0.184462
0.71871
0.628813
0.510574
0.510213
0.780428
0.796478
0.559705
0.45036
0.613422
0.521549
0.304397
0.393901
0.257347
0.396884
0.776888
0.701039
0.174239
0.509307
0.720705
0.236458
0.499217
0.251998
0.305941
0.68547
0.52475
0.603793
0.812949
0.620048
0.608403
0.486085
0.679601
0.173597
0.582113
0.251955
0.173475
0.565265
0.231123
0.434336
0.17819
0.219224
0.618798
0.649989
0.633917
0.281622
0.467281
0.449681
0.250701
0.200299
0.718688
0.574148
0.193818
0.703051
0.540529
0.585948
0.230065
0.781235
0.588895
0.203836
0.687037
0.474972
0.681756
0.727844
0.642071
0.635018
0.405483
0.437153
0.266553
0.293231
0.233071
0.790758
0.445086
0.299341
0.815285
0.331453
0.205932
0.512924
0.791509
0.549587
0.465302
0.396321
0.744045
0.470614
0.357855
0.346898
0.16527
0.256991
0.663098
0.249801
0.80398
0.36746
0.25499
0.481563
0.692431
0.473266
0.806432
0.378782
0.508369
0.295195
0.615669
0.286495
0.329456
0.509944
0.54728
0.767438
0.664494
0.228594
0.312286
0.220981
0.220435
0.255899
0.235088
0.413878
0.618988
0.455408
0.23799
0.436108
0.541679
0.61682
0.384964
0.369941
0.695399
0.338471
0.323207
0.400823
0.593418
0.415635
0.502553
0.253222
0.530087
0.734574
0.311569
0.545108
0.750829
0.741946
0.422614
0.421354
0.51831
0.356773
0.700131
0.594238
0.552243
0.421207
0.545806
0.65519
0.376323
0.240603
0.228284
0.768211
0.353974
0.389776
0.501923
0.247935
0.43854
0.67031
0.50476
0.322953
0.33015
0.332088
0.346261
0.295084
0.724175
0.620948
0.257449
0.676515
0.576267
0.369521
0.56781
0.422818
0.611271
0.545479
0.629687
0.572902
0.36024
0.528288
0.635102
0.576419
0.724597
0.678345
0.419922
0.349542
0.405372
0.365694
0.420867
0.39546
0.308168
0.375127
0.521588
0.619544
0.410139
0.565764
0.263719
0.510728
0.408182
0.312638
0.455838
0.301316
0.463447
0.495795
0.41835
0.392028
0.408773
0.71673
0.494906
0.364482
0.339171
0.808886
0.513527
0.250738
0.363769
0.35035
0.648189
0.398658
0.810033
0.370825
0.519765
0.634324
0.754515
0.442614
0.524201
0.534273
0.308301
0.780184
0.306083
0.648723
0.71739
0.435565
0.33696
0.396379
0.582353
0.349862
0.451531
0.43631
0.44172
0.605683
0.321884
0.403021
0.440588
0.423196
0.387548
0.356331
0.463896
0.600793
0.433783
0.247321
0.234797
0.54745
0.722482
0.321849
0.314984
0.477507
0.553201
0.463302
0.696896
0.836595
0.717358
0.537467
0.611891
0.371727
0.363038
0.440475
0.306666
0.781574
0.332669
0.470329
0.511219
0.432335
0.416177
0.406675
0.37612
0.457181
0.427097
0.779253
0.466778
0.407521
0.344864
0.49868
0.332716
0.586448
0.722259
0.466503
0.272313
0.283586
0.359712
0.35985
0.4518
0.860941
0.473898
0.525098
0.34103
0.697371
0.613878
0.319763
0.318801
0.421537
0.56717
0.486496
0.581302
0.380783
0.505119
0.401959
0.560918
0.514183
0.461979
0.463318
0.327091
0.707933
0.629696
0.349664
0.763878
0.53698
0.409057
0.391796
0.383563
0.533559
0.446375
0.34678
0.501591
0.444044
0.39647
0.422114
0.362607
0.388831
0.323982
0.552699
0.364633
0.235967
0.311162
0.716792
0.631685
0.481405
0.51162
0.404963
0.544873
0.528208
0.48348
0.437741
0.478802
0.726075
0.355928
0.894889
0.322632
0.315165
0.313968
0.579937
0.292057
0.313283
0.392815
0.250027
0.313837
0.39738
0.420978
0.379456
0.480092
0.495863
0.576159
0.59282
0.799665
0.331227
0.321848
0.649264
0.766426
0.31459
0.915217
0.654216
0.373494
0.489099
0.424262
0.408403
0.537265
0.477542
0.490395
0.468447
0.507348
0.637765
0.364562
0.345797
0.652185
0.427723
0.251533
0.227491
0.333461
0.941723
0.406477
0.429699
0.572675
0.4555
0.496642
0.451561
0.501478
0.543946
0.535454
0.727637
0.479821
0.875789
0.269142
0.220858
0.693972
0.561156
0.57227
0.42096
0.533302
0.548055
0.565368
0.730866
0.568891
0.675659
0.649429
0.234877
0.536104
0.338366
0.496345
0.424121
0.659616
0.448648
0.564238
0.388185
0.523506
0.561203
0.958006
0.39785
0.546255
0.686721
0.456453
0.7406
0.677084
0.522519
0.411247
0.52073
0.487506
0.419705
0.688041
0.964225
0.431122
0.299169
0.712438
0.247461
0.274404
0.556951
0.578414
0.700011
0.536911
0.460492
0.544083
0.477675
0.510161
0.590093
0.724104
0.602796
0.810785
0.971597
0.498285
0.373979
0.221767
0.375206
0.529734
0.437076
0.495028
0.520838
0.604935
0.423263
0.490162
0.503333
0.578582
0.407025
0.549319
0.718205
0.757291
0.695559
0.687923
0.714414
0.316737
0.252697
0.311987
0.579708
0.505173
0.652753
0.437642
0.541544
0.492431
0.804457
0.986918
0.512086
0.584853
0.785367
0.414666
0.50695
0.265015
0.509356
0.483118
0.613196
0.815295
0.469015
0.883231
0.994117
0.662203
0.547277
0.480082
0.255638
0.41489
0.865226
0.42311
1
0.529369
0.507786
0.614181
0.557215
0.593439
0.45805
0.533393
0.4453
0.55878
0.713773
0.485439
0.857295
0.431698
0.56518
0.645935
0.652322
0.512622
0.380534
0.435512
0.438031
0.526117
0.468181
0.416688
0.677619
0.389204
0.300266
0.356094
0.384005
0.476555
0.829891
0.521492
0.929532
0.639789
0.59172
0.556238
0.518506
0.571497
0.442927
0.466245
0.780075
0.368784
0.695415
0.867174
0.467504
0.350145
0.363446
0.38036
0.805509
0.530384
0.580623
0.59608
0.453744
0.500885
0.493186
0.555323
0.655082
0.645979
0.402578
0.87915
0.625991
0.401229
0.673781
0.663705
0.593638
0.414501
0.535732
0.506477
0.457187
0.557251
0.590314
0.699393
0.995486
0.596524
0.846636
0.634276
0.451318
0.426733
0.427439
0.413895
0.288304
0.465953
0.468785
0.349241
0.470544
0.490583
0.568046
0.600184
0.98939
0.354917
0.79275
0.882858
0.31512
0.527253
0.609549
0.61912
0.40521
0.607752
0.516138
0.567989
0.909983
0.453533
0.909657
0.593516
0.469774
0.968574
0.496685
0.414359
0.38405
0.973077
0.427056
0.509399
0.635347
0.788203
0.690104
0.505319
0.493703
0.440675
0.467779
0.553179
0.847545
0.453827
0.540294
0.987433
0.389026
0.432665
0.331233
0.467056
0.498308
0.861299
0.651929
0.340228
0.529171
0.509365
0.444286
0.619702
0.465889
0.584514
0.836418
0.578338
0.620369
0.88576
0.428813
0.602745
0.516244
0.977733
0.35506
0.578261
0.603388
0.498057
0.969526
0.490795
0.708153
0.920696
0.402583
0.45511
0.475396
0.526429
0.960527
0.60529
0.945483
0.569198
0.341975
0.650911
0.552656
0.736761
0.554679
0.569225
0.5888
0.551433
0.593302
0.343938
0.524323
0.902877
0.571086
0.870832
0.503065
0.524001
0.35888
0.892557
0.409879
0.452287
0.372829
0.343495
0.462603
0.372758
0.423705
0.459691
0.933473
0.545178
0.894758
0.494423
0.55421
0.441338
0.684442
0.456313
0.460511
0.904663
0.449047
0.441787
0.455561
0.442932
0.435393
0.530247
0.414121
0.621414
0.352541
0.927709
0.543634
0.602589
0.435304
0.603253
0.596224
0.567879
0.887074
0.392455
0.589446
0.454384
0.941737
0.510276
0.492145
0.446907
0.635439
0.498363
0.563074
0.423219
0.42256
0.874657
0.495385
0.889721
0.705316
0.44767
0.48973
0.531319
0.421334
0.534989
0.473782
0.369945
0.466345
0.467105
0.456718
0.468626
0.613716
0.434757
0.582828
0.560437
0.547767
0.579027
0.892278
0.756734
0.53043
0.647449
0.377468
0.634027
0.366271
0.525097
0.579024
0.446492
0.439963
0.382685
0.938374
0.49839
0.457188
0.434017
0.406687
0.470756
0.39315
0.476818
0.42639
0.426155
0.464737
0.51278
0.504692
0.865743
0.59142
0.455506
0.608041
0.621404
0.822253
0.499497
0.418969
0.375817
0.514241
0.557958
0.577683
0.440228
0.839112
0.706134
0.445861
0.439899
0.459303
0.444759
0.799915
0.566752
0.476417
0.592449
0.525409
0.560799
0.405415
0.457763
0.472697
0.48837
0.561231
0.614375
0.559334
0.550442
0.520037
0.570547
0.432247
0.389616
0.435314
0.71655
0.44687
0.491667
0.480884
0.515469
0.634687
0.605555
0.635848
0.546634
0.605498
0.561804
0.497418
0.601663
0.470392
0.376226
0.40011
0.540276
0.444152
0.590452
0.476103
0.41908
0.670165
0.443999
0.628887
0.452146
0.56922
0.429698
0.492562
0.647839
0.533256
0.613416
0.612924
0.495992
0.546751
0.530198
0.752462
0.734051
0.45189
0.559207
0.448545
0.635589
0.515823
0.462808
0.485657
0.429468
0.493889
0.481599
0.509091
0.472715
0.827029
0.479249
0.424037
0.428653
0.523418